data_Wien2k_Data
_cell_length_a    2.868138
_cell_length_b    4.056184
_cell_length_c   35.999986
_cell_angle_alpha   90.000000
_cell_angle_beta    90.000000
_cell_angle_gamma   90.000000
_cell_measurement_temperature 0.0
_diffrn_ambient_temperature 0.0
_symmetry_space_group_name_H-M         'Cmma'
_symmetry_space_group_number   67

_refine_date  '18- 6-2021'
_refine_method 'generated from Wien2k code' 
_refine_special_details 
;
Structure converted from Wien2k struct file, Version 21.1
File Name /home/ldm/Mixing/Mixing_10.6/WFeN2/WFeN2.struct                                 
Title 'WFe multilayer, from Lyudmila Dobysheva'
Information from case.in0:
TOT  XC_PBE     (XC_LDA,XC_PBESOL,XC_WC,XC_MBJ,XC_SCAN)                                                                 
NR2V      IFFT      (R2V)                                                                                               
   30   40  360    2.00  1 NCON 9  # min IFFT-parameters, enhancement factor, iprint, NCON n                            
Information from case.in1:
  7.00     10   6   ELPA pxq (R-MT*K-MAX,MAX L IN WF,V-NMT,LIB, Optional BL and BD)                                     
Information from case.in2:
TEMPS    0.0018      (GAUSS,ROOT,TEMP,TETRA,ALL      eval)                                                              
 16.00          GMAX                                                                                                    
k-mesh information
         1         0         0         7        14  1.0 -7.0  1.5         0 k, div: (  7  7  1)                         
;

loop_
_symmetry_equiv_pos_as_xyz
   +x,+y,+z
   -x,-y,-z
   -x,+y,+z
   +x,-y,-z
   -x,-y+1/2,+z
   -x,+y+1/2,-z
   +x,-y+1/2,+z
   +x,+y+1/2,-z
   +x+1/2,+y+1/2,+z
   -x+1/2,-y+1/2,-z
   -x+1/2,+y+1/2,+z
   +x+1/2,-y+1/2,-z
   -x+1/2,-y,+z
   -x+1/2,+y,-z
   +x+1/2,-y,+z
   +x+1/2,+y,-z
loop_
_atom_site_label
_atom_site_type_symbol
_atom_site_fract_x
_atom_site_fract_y
_atom_site_fract_z
_atom_site_U_iso_or_equiv
_atom_site_RMT
Fe009 Fe09  0.00000000  0.25000000  0.02777800  0.05000000 2.000000
Fe007 Fe07  0.00000000  0.75000000  0.08333300  0.05000000 2.000000
Fe002 Fe02  0.00000000  0.25000000  0.13888900  0.05000000 2.000000
Fe005 Fe05  0.00000000  0.75000000  0.19444400  0.05000000 2.000000
Fe010 Fe10  0.00000000  0.25000000  0.25000000  0.05000000 2.000000
Fe006 Fe06  0.00000000  0.75000000  0.30555600  0.05000000 2.000000
Fe001 Fe01  0.00000000  0.25000000  0.36111100  0.05000000 2.000000
W0001 W01   0.00000000  0.75000000  0.41666700  0.05000000 2.310000
W0003 W03   0.00000000  0.25000000  0.47222200  0.05000000 2.310000
#End data_Wien2k_Data

